[Molden Format]
[Atoms] (AU)
O    1    8           0.0000000000         0.0000000000        -0.1086136939
H    2    1           0.0000000000         0.0000000000         1.7237781409
[GTO]
  1 0
 s    1  1.00
   105374.9500000000         1.0000000000
 s    1  1.00
    15679.2400000000         1.0000000000
 s    1  1.00
     3534.5447000000         1.0000000000
 s    1  1.00
      987.3651600000         1.0000000000
 s    1  1.00
      315.9787500000         1.0000000000
 s    1  1.00
      111.6542800000         1.0000000000
 s    1  1.00
       42.6994510000         1.0000000000
 s    1  1.00
       17.3955960000         1.0000000000
 s    1  1.00
        7.4383090000         1.0000000000
 s    1  1.00
        3.2228620000         1.0000000000
 s    1  1.00
        1.2538770000         1.0000000000
 s    1  1.00
        0.4951550000         1.0000000000
 s    1  1.00
        0.1916650000         1.0000000000
 s    1  1.00
        0.0670830000         1.0000000000
 p    1  1.00
      200.0000000000         1.0000000000
 p    1  1.00
       46.5333670000         1.0000000000
 p    1  1.00
       14.6218090000         1.0000000000
 p    1  1.00
        5.3130640000         1.0000000000
 p    1  1.00
        2.1025250000         1.0000000000
 p    1  1.00
        0.8502230000         1.0000000000
 p    1  1.00
        0.3375970000         1.0000000000
 p    1  1.00
        0.1288920000         1.0000000000
 p    1  1.00
        0.0451120000         1.0000000000
 d    1  1.00
        3.7500000000         1.0000000000
 d    1  1.00
        1.3125000000         1.0000000000
 d    1  1.00
        0.4593750000         1.0000000000
 d    1  1.00
        0.1607810000         1.0000000000
 f    1  1.00
        2.3500000000         1.0000000000
 f    1  1.00
        0.9400000000         1.0000000000
 f    1  1.00
        0.3760000000         1.0000000000
 g    1  1.00
        1.1750000000         1.0000000000
 g    1  1.00
        0.4700000000         1.0000000000

  2 0
 s    1  1.00
      188.6144500000         1.0000000000
 s    1  1.00
       28.2765960000         1.0000000000
 s    1  1.00
        6.4248300000         1.0000000000
 s    1  1.00
        1.8150410000         1.0000000000
 s    1  1.00
        0.5910630000         1.0000000000
 s    1  1.00
        0.2121490000         1.0000000000
 s    1  1.00
        0.0798910000         1.0000000000
 s    1  1.00
        0.0279620000         1.0000000000
 p    1  1.00
        2.3050000000         1.0000000000
 p    1  1.00
        0.8067500000         1.0000000000
 p    1  1.00
        0.2823620000         1.0000000000
 p    1  1.00
        0.0988270000         1.0000000000
 d    1  1.00
        1.8190000000         1.0000000000
 d    1  1.00
        0.7276000000         1.0000000000
 d    1  1.00
        0.2910400000         1.0000000000
 f    1  1.00
        0.9701090000         1.0000000000

[5D7F]
[9G]

[MO]
 Sym= A
 Ene=        -2.0633717348e+01
 Spin= Alpha
 Occup=         1.0000000000e+00
  1         1.0088219142e-04
  2         4.8515736872e-04
  3         2.1431733530e-03
  4         8.5302081831e-03
  5         3.0175222316e-02
  6         9.0988581956e-02
  7         2.1773459878e-01
  8         3.6855106062e-01
  9         3.3634150424e-01
 10         9.6891974810e-02
 11         2.2294182253e-03
 12         2.3480105520e-03
 13         2.2353051095e-03
 14         3.6315526027e-04
 15        -1.1642598398e-16
 16        -6.0288640756e-17
 17         1.5340558446e-06
 18         9.0976124098e-16
 19         5.1924531773e-16
 20         1.3887376458e-05
 21        -1.2255860407e-15
 22        -1.1742143901e-16
 23         9.3276169430e-05
 24         2.5422975691e-15
 25         8.8273886044e-16
 26         1.8215023707e-04
 27        -2.1777147930e-15
 28         3.1886385122e-15
 29         8.2595980450e-05
 30         2.7685687601e-15
 31        -6.0506783862e-15
 32        -2.7515389427e-04
 33        -1.9143114734e-15
 34        -1.9617204106e-14
 35         1.3135643958e-03
 36        -7.0715623831e-15
 37        -9.7225269494e-15
 38         4.5163823239e-04
 39         1.0845925895e-15
 40        -1.1566360717e-15
 41         2.4351398437e-05
 42         7.3206610697e-05
 43         7.6526702448e-17
 44        -3.3520434962e-16
 45        -8.7392974229e-13
 46         5.0577255071e-15
 47        -5.5071007828e-05
 48         2.4236311965e-15
 49         6.7071853974e-15
 50        -3.8967829705e-13
 51        -2.3879101255e-15
 52         4.0517833488e-04
 53        -2.3389780589e-15
 54        -2.2498129196e-14
 55        -8.0994726160e-14
 56        -7.4842208801e-16
 57         1.6058579865e-04
 58        -4.6016530750e-15
 59        -4.3247287970e-15
 60         1.2358869013e-12
 61        -5.4033951535e-15
 62         1.8208130284e-05
 63         5.5173710762e-16
 64        -3.1092692356e-16
 65         1.9297748842e-13
 66        -1.4732421828e-15
 67        -9.0382231875e-16
 68        -8.9695460456e-16
 69         5.4369619618e-05
 70         1.3214917684e-16
 71        -1.5396284271e-15
 72        -4.1084603653e-13
 73         6.2202705631e-15
 74         7.2320509324e-16
 75         1.3657575374e-16
 76         9.0403776545e-05
 77        -2.6018468149e-15
 78        -6.0944493053e-15
 79         1.5842947938e-13
 80        -1.2784971015e-14
 81        -6.6676861477e-16
 82         5.6961069210e-16
 83         1.9001604690e-05
 84         6.8571072250e-16
 85        -6.3153864210e-16
 86         2.4215190611e-13
 87         7.3231703679e-16
 88        -1.8517361957e-16
 89        -2.8236497062e-16
 90        -3.7547924620e-15
 91         1.5915615504e-14
 92         1.3967278135e-05
 93        -2.5025548349e-15
 94        -1.2822273768e-15
 95        -1.0536592908e-13
 96        -1.2563466118e-14
 97        -1.9935550431e-16
 98         5.1472563206e-16
 99         6.8683973431e-15
100        -2.5185595492e-15
101         1.3814979633e-07
102         4.0019169272e-06
103        -5.3949981248e-06
104         4.6352975247e-05
105        -5.4692835160e-04
106        -2.3891004721e-03
107        -4.5384552258e-04
108        -1.0808193113e-04
109         6.5462844688e-16
110         3.7760885069e-16
111        -1.5384268199e-05
112         2.9091386771e-16
113         8.4187002507e-15
114         6.1596532067e-06
115         6.8831065883e-15
116         2.4752804138e-14
117         1.0179471382e-03
118         2.4237144856e-15
119         4.5908879783e-15
120         1.5897346843e-04
121         3.0498742299e-05
122         3.6243025974e-16
123        -3.2060956749e-16
124        -3.1867096057e-14
125        -7.2654363919e-15
126         9.9725055932e-05
127        -1.0861317429e-16
128        -4.3505765650e-15
129         5.1587268714e-14
130         2.8922114980e-14
131        -2.2075178053e-04
132        -3.5102281266e-16
133        -1.2441396496e-14
134         1.5338760416e-14
135        -3.8735350202e-15
136        -6.6379281743e-05
137        -1.1096986648e-15
138         5.6825672997e-15
139         2.2240293255e-14
140         8.3711053166e-15
141        -8.7768662277e-17
142        -1.1330589631e-15
 Sym= A
 Ene=        -1.3094105342e+00
 Spin= Alpha
 Occup=         1.0000000000e+00
  1         2.2104342623e-05
  2         1.0624485599e-04
  3         4.7092178735e-04
  4         1.8769992840e-03
  5         6.7483482535e-03
  6         2.0911901592e-02
  7         5.4348111765e-02
  8         1.0892731032e-01
  9         1.5292573681e-01
 10         3.4244825686e-02
 11        -3.4623080256e-01
 12        -5.2685494480e-01
 13        -2.0173141586e-01
 14        -2.8732442534e-02
 15        -1.0445615961e-16
 16         5.6047786079e-17
 17        -1.3485186958e-04
 18         1.4470928660e-16
 19        -5.4276069159e-16
 20        -1.0610194049e-03
 21         2.6056856844e-15
 22        -1.8311524738e-15
 23        -5.0802494035e-03
 24         3.5334995328e-16
 25         2.3093499548e-15
 26        -1.5830075010e-02
 27         1.2508252650e-14
 28         2.1760612554e-15
 29        -3.6151978747e-02
 30         1.8632022158e-14
 31        -1.4845771537e-15
 32        -5.3517501873e-02
 33        -1.7071364691e-13
 34        -2.9404580158e-14
 35        -4.7848670503e-02
 36        -9.6072586361e-14
 37        -3.7847582466e-14
 38        -2.2236966441e-02
 39         3.6939258427e-15
 40         3.8840208920e-15
 41        -2.2552434072e-03
 42        -1.4184719972e-03
 43        -1.7428266851e-16
 44         7.0913348911e-16
 45         4.3560200553e-12
 46        -5.6573415201e-14
 47        -6.5675569625e-03
 48        -3.8458566179e-15
 49        -2.5688995467e-15
 50        -2.3433982170e-11
 51         1.4471145122e-13
 52        -1.1180095094e-02
 53        -9.0358625400e-14
 54        -2.2925110516e-14
 55        -3.0080583694e-11
 56         4.6669115026e-14
 57        -6.7897553217e-03
 58        -6.5592173328e-14
 59        -3.3439433324e-14
 60         1.5762717026e-10
 61        -1.0033357193e-12
 62        -8.9914127183e-04
 63         8.3258556295e-17
 64         2.3653607420e-15
 65        -1.2461917878e-11
 66         6.8131542584e-14
 67         4.8254986573e-16
 68        -3.3919855098e-15
 69        -2.0440027194e-03
 70        -9.1484506032e-15
 71        -7.8492848149e-15
 72        -5.0385942518e-12
 73         4.1585068843e-14
 74         5.5880028729e-16
 75        -8.5046588198e-15
 76        -2.3725971088e-03
 77        -3.8033800091e-14
 78        -1.5493780657e-14
 79         9.8045197818e-12
 80         7.0742772311e-14
 81        -2.7280061596e-16
 82        -4.5629349819e-15
 83        -5.5577212358e-04
 84        -6.4396568512e-15
 85        -3.9104094611e-15
 86        -3.7296474650e-12
 87         6.2906829982e-15
 88        -5.9029006669e-17
 89         5.5850710529e-16
 90        -3.3058598963e-13
 91         6.2182735056e-14
 92        -2.8902931673e-04
 93         1.8468939459e-14
 94        -6.7350099445e-15
 95         2.0025142593e-12
 96         3.8860522965e-14
 97        -9.4716565072e-16
 98         7.6429307794e-15
 99         1.1689509978e-12
100        -1.2962923917e-13
101        -3.1580364495e-04
102        -2.5003430413e-03
103        -1.1610254027e-02
104        -4.4776276479e-02
105        -7.8121819425e-02
106         1.8062654311e-02
107         2.3735541011e-02
108        -8.3070484692e-03
109        -1.1705087651e-16
110        -3.4892951631e-15
111         7.2394218887e-03
112        -5.8619397568e-15
113         2.7281492002e-14
114         1.5960620790e-02
115         2.1196302530e-13
116         5.2214862837e-14
117        -7.2350151698e-03
118         4.9677204032e-14
119         2.4604690089e-14
120        -1.3727606389e-02
121        -2.6958829109e-03
122        -8.4665305814e-16
123        -2.3393965075e-15
124         9.7223268219e-13
125         6.0862550918e-14
126        -3.1370552771e-03
127        -1.8219684492e-14
128        -1.4747625444e-14
129         1.0603329800e-11
130        -2.5128463262e-13
131         1.1076281988e-03
132        -1.0734118634e-13
133        -2.1840612784e-14
134        -1.1263585254e-11
135         1.5609415123e-13
136         1.1955676377e-03
137         1.2812265589e-14
138         2.1302729767e-15
139        -3.0030093230e-12
140         4.9801160466e-15
141        -6.3780484641e-16
142        -1.0982938524e-15
 Sym= A
 Ene=        -6.6104743572e-01
 Spin= Alpha
 Occup=         1.0000000000e+00
  1         6.5347504904e-06
  2         3.1375464653e-05
  3         1.3936292164e-04
  4         5.5385822377e-04
  5         1.9999549686e-03
  6         6.1717853311e-03
  7         1.6189176467e-02
  8         3.2285105804e-02
  9         4.6961905594e-02
 10         7.7795944926e-03
 11        -1.0704048674e-01
 12        -1.9117844658e-01
 13        -1.1186675710e-01
 14        -3.6724959464e-03
 15         1.3275753395e-17
 16         1.4910623643e-16
 17         8.1065286621e-04
 18        -6.1121147064e-16
 19         6.2098528592e-16
 20         6.4896582629e-03
 21        -2.8967931740e-15
 22        -5.5455912890e-16
 23         3.0810847923e-02
 24        -5.7246589682e-15
 25         1.1149124482e-14
 26         1.0017193933e-01
 27        -2.9471242490e-14
 28         9.1925328966e-15
 29         2.2411012774e-01
 30         2.8486909690e-14
 31         3.6767058396e-14
 32         3.2385943311e-01
 33        -4.0605330359e-13
 34         2.2206761215e-13
 35         2.5948019671e-01
 36         1.8384848687e-13
 37         6.7403786217e-14
 38         5.8586235203e-02
 39        -8.5799648249e-14
 40        -2.0755242831e-16
 41        -8.2130705642e-04
 42         2.8079639081e-03
 43        -1.4261166353e-15
 44        -7.6634882514e-16
 45        -4.3836552444e-12
 46         2.8185485198e-14
 47         1.2412967823e-02
 48        -7.4245168090e-15
 49         4.0678306361e-15
 50        -3.1936167292e-12
 51         1.0229589823e-14
 52         1.2746301484e-02
 53        -1.1048067603e-13
 54         1.4964088478e-13
 55         3.3372203295e-11
 56         1.3257447841e-14
 57         3.9501358744e-03
 58        -8.9077660814e-14
 59         5.1471384169e-14
 60        -2.2429270049e-10
 61         1.5682835033e-12
 62         1.4153805581e-03
 63        -1.7439454229e-15
 64         1.2383064256e-17
 65         5.3276819555e-11
 66        -2.8507391791e-13
 67         2.8043987147e-16
 68        -3.1397902652e-15
 69         2.1768745670e-03
 70         6.2145447249e-15
 71         1.9985788845e-14
 72         7.3949293439e-11
 73        -4.5852813398e-13
 74        -8.0030472738e-16
 75        -8.1911940840e-15
 76        -2.9929530179e-04
 77        -4.3253227115e-14
 78         6.4360942713e-14
 79        -2.2116443126e-11
 80         1.0769477343e-13
 81         2.1415104578e-15
 82         7.8802177298e-16
 83         8.0340813842e-04
 84        -1.0229900011e-14
 85         7.3574028704e-15
 86        -1.4855132913e-11
 87         7.9439057503e-14
 88         6.2192222042e-16
 89         8.6982017866e-16
 90         2.8609973464e-13
 91        -4.0861322355e-14
 92        -5.4508154129e-04
 93         6.6920750068e-14
 94         9.1135230619e-15
 95        -1.2135567415e-11
 96         3.8572693954e-14
 97        -5.1798712646e-15
 98         5.8026689690e-15
 99        -8.9889372414e-13
100         1.5530945370e-13
101         4.5355771219e-04
102         3.5941087491e-03
103         1.7106279304e-02
104         6.8100474855e-02
105         1.5458196847e-01
106         8.1852343120e-02
107         2.4535856322e-02
108         1.8599783952e-02
109         2.9335879950e-17
110         1.2925312393e-14
111        -6.7306051932e-03
112        -3.6513054439e-14
113        -7.0953713807e-14
114        -2.1653758261e-02
115         2.8487471999e-13
116        -2.3085715364e-13
117         9.9596754539e-04
118        -1.6111937969e-15
119        -1.4138829086e-14
120         5.9905505501e-03
121         2.6861575602e-03
122        -2.5028365168e-15
123        -2.2637621805e-15
124        -7.3414547624e-12
125         2.7503807213e-14
126         2.7421344809e-03
127         9.6122667338e-15
128         6.2217195096e-14
129        -4.8658319802e-11
130         4.0459600051e-13
131        -1.8009350456e-03
132        -1.6963163741e-13
133         9.2878912191e-14
134        -6.6489614983e-11
135         1.2464844876e-13
136        -7.2033283236e-04
137         8.8294780201e-15
138        -2.1014238948e-14
139         2.0709833269e-11
140        -1.9623776686e-13
141         2.2285658730e-15
142         2.7934829708e-16
 Sym= A
 Ene=        -5.3770550552e-01
 Spin= Alpha
 Occup=         1.0000000000e+00
  1        -1.7122170999e-16
  2         3.8810779741e-16
  3        -2.6542483585e-16
  4         3.5928139858e-17
  5        -2.8759817754e-16
  6         8.6176507773e-16
  7        -5.7998683254e-15
  8         9.9438156969e-15
  9        -1.4429470376e-14
 10        -6.1105625990e-16
 11         1.1634482260e-13
 12        -5.6624338258e-13
 13        -4.2564822305e-12
 14        -3.3129098752e-12
 15         9.1926851291e-04
 16        -2.4715340933e-06
 17         2.3040771641e-16
 18         7.3999471371e-03
 19        -1.9895407473e-05
 20         1.8580354513e-17
 21         3.4961171983e-02
 22        -9.3996179893e-05
 23         2.9013304770e-15
 24         1.1484133101e-01
 25        -3.0876099963e-04
 26         4.7149499790e-15
 27         2.5452600729e-01
 28        -6.8431551377e-04
 29         2.0992472928e-14
 30         3.7505519027e-01
 31        -1.0083688029e-03
 32        -6.6177835752e-14
 33         3.4224218662e-01
 34        -9.2014816134e-04
 35        -1.1402602618e-12
 36         1.1007506974e-01
 37        -2.9594648829e-04
 38        -2.0606219394e-12
 39         9.9808705275e-04
 40        -2.6834446506e-06
 41        -3.7972836443e-13
 42         2.5289060292e-15
 43         9.0384009276e-04
 44        -2.4300534543e-06
 45         1.8920560095e-16
 46        -1.1820734063e-15
 47        -2.8876605653e-14
 48         5.8950925522e-03
 49        -1.5849473842e-05
 50        -1.4423683390e-15
 51         2.6975166312e-15
 52        -2.1802356310e-13
 53         1.1839646717e-02
 54        -3.1831929572e-05
 55         3.0028907393e-15
 56        -1.4208368256e-15
 57        -5.2066190304e-13
 58         3.4489689096e-03
 59        -9.2728557572e-06
 60         3.9290619881e-14
 61        -1.9398282385e-15
 62        -7.1220456063e-16
 63         8.9953159245e-04
 64        -2.4184696585e-06
 65         1.0925404554e-15
 66         3.1340091249e-16
 67        -3.8145581398e-11
 68         3.1423561815e-13
 69        -2.9465633854e-14
 70         2.5812318070e-03
 71        -6.9398682274e-06
 72        -3.8838389624e-15
 73         1.7827311725e-16
 74         1.9405085059e-11
 75        -2.1257986713e-14
 76        -1.0992487006e-14
 77         2.6418191188e-03
 78        -7.1027626925e-06
 79         1.7796954526e-14
 80        -3.0740797671e-15
 81         7.5923425147e-11
 82        -9.8598739578e-13
 83        -9.2886018897e-15
 84         7.6587017104e-04
 85        -2.0591091558e-06
 86        -1.2074453473e-15
 87         2.1794691615e-15
 88        -9.3229977124e-12
 89         4.4076096067e-14
 90         7.8541239885e-16
 91         2.9149179806e-15
 92         2.8187114105e-14
 93         4.2005041144e-04
 94        -1.1293424589e-06
 95         6.3197508482e-15
 96        -2.0177665996e-15
 97        -2.4626682956e-11
 98         3.1468326010e-13
 99         1.1195982713e-15
100        -3.6924663753e-15
101        -5.3603315938e-16
102         1.4603893778e-15
103         1.1469996215e-15
104        -4.0029313871e-14
105         2.3839663337e-13
106         4.3733407100e-12
107         3.5922050037e-12
108         2.1597720570e-13
109         4.1191908494e-03
110        -1.1074806193e-05
111         8.4356836406e-15
112         1.2299705259e-02
113        -3.3068837487e-05
114        -1.7119961624e-13
115         1.2355104876e-02
116        -3.3217784349e-05
117        -1.5709256589e-12
118         6.0912526238e-04
119        -1.6376864958e-06
120        -9.7698159525e-13
121         1.4859325821e-15
122        -2.1584712067e-03
123         5.8032393320e-06
124        -2.7858766125e-15
125        -1.3330477793e-15
126         1.0902576206e-13
127        -3.4968596928e-03
128         9.4016142397e-06
129         9.8334058549e-15
130         2.1314628545e-15
131         2.5959929101e-13
132        -1.1670515030e-03
133         3.1377208825e-06
134        -5.8955741298e-14
135         2.6811308618e-15
136        -2.1006993109e-14
137         1.2067086227e-03
138        -3.2443421442e-06
139         3.4753859671e-15
140         6.3957325463e-16
141         1.0646557063e-11
142        -9.8452036624e-14
 Sym= A
 Ene=        -2.4591424815e-01
 Spin= Alpha
 Occup=         1.0000000000e+00
  1         2.2856962875e-16
  2        -1.7276635146e-16
  3        -1.1101520501e-16
  4         7.7664966435e-17
  5        -2.3583687213e-16
  6         3.7452404826e-16
  7        -4.5906423806e-15
  8         4.0235000496e-15
  9        -1.2358364437e-14
 10         1.1661847439e-14
 11         4.4090380504e-15
 12        -5.5295187999e-14
 13        -1.1172543281e-12
 14        -6.5149088564e-13
 15         2.4715340944e-06
 16         9.1926851296e-04
 17        -2.8479400197e-16
 18         1.9895407475e-05
 19         7.3999471373e-03
 20        -1.9376229316e-16
 21         9.3996179920e-05
 22         3.4961171983e-02
 23        -2.4087306345e-15
 24         3.0876099961e-04
 25         1.1484133100e-01
 26        -6.7653628224e-15
 27         6.8431551425e-04
 28         2.5452600735e-01
 29        -1.8054960239e-14
 30         1.0083688031e-03
 31         3.7505519048e-01
 32        -4.3324428364e-14
 33         9.2014816203e-04
 34         3.4224218599e-01
 35        -3.4388849106e-13
 36         2.9594648810e-04
 37         1.1007506948e-01
 38        -4.1176024114e-13
 39         2.6834451005e-06
 40         9.9808704274e-04
 41        -6.9881663747e-14
 42         3.6730962564e-16
 43         2.4300534158e-06
 44         9.0384008636e-04
 45         1.0258883493e-15
 46         1.4752644264e-16
 47        -9.3370479674e-15
 48         1.5849473814e-05
 49         5.8950925190e-03
 50        -6.5923677322e-14
 51        -7.9319455616e-15
 52        -5.0028952031e-14
 53         3.1831929481e-05
 54         1.1839646402e-02
 55         7.5177677537e-14
 56         4.2577721960e-15
 57        -7.4906144052e-14
 58         9.2728564107e-06
 59         3.4489687238e-03
 60        -5.0536474980e-15
 61        -2.3897220789e-15
 62         6.6624780713e-16
 63         2.4184695853e-06
 64         8.9953157846e-04
 65        -1.5855944053e-15
 66        -4.1385486476e-16
 67        -3.3384838559e-13
 68        -3.5574698301e-11
 69        -6.4683208191e-15
 70         6.9398683838e-06
 71         2.5812317538e-03
 72         7.5231580222e-15
 73         3.3426879050e-15
 74        -2.9040663323e-15
 75         1.9637356970e-11
 76         2.8987566324e-14
 77         7.1027628399e-06
 78         2.6418190393e-03
 79         3.0396554917e-14
 80         2.6020288618e-15
 81         6.8666749333e-13
 82         7.0613957432e-11
 83        -4.3430581159e-15
 84         2.0591091726e-06
 85         7.6587014364e-04
 86         6.4596408393e-15
 87         2.5827614428e-15
 88        -3.0983092777e-14
 89        -9.4280887123e-12
 90        -6.6711173560e-15
 91         1.0895102620e-15
 92         2.0502012749e-14
 93         1.1293423760e-06
 94         4.2005036336e-04
 95         2.2266384650e-14
 96         3.4399405377e-15
 97        -3.3355410754e-13
 98        -2.4817777201e-11
 99         3.1451654617e-15
100        -3.1823176558e-16
101        -4.5591722752e-17
102         1.0005896873e-16
103         7.9204085083e-18
104        -1.4931528820e-14
105        -1.5945014897e-15
106         1.0829477995e-12
107         7.7012324208e-13
108         3.5925446114e-14
109         1.1074806213e-05
110         4.1191908310e-03
111         2.0936377190e-15
112         3.3068837239e-05
113         1.2299705416e-02
114        -3.6074943389e-14
115         3.3217783135e-05
116         1.2355105326e-02
117        -4.3597602075e-13
118         1.6376857647e-06
119         6.0912536850e-04
120        -2.8273374531e-13
121        -6.6021740393e-15
122        -5.8032393011e-06
123        -2.1584712060e-03
124         6.7389595073e-16
125         7.2630911835e-16
126         5.7673316542e-14
127        -9.4016141925e-06
128        -3.4968598279e-03
129        -3.1133801608e-14
130        -4.6765816912e-15
131        -3.1725332525e-14
132        -3.1377204100e-06
133        -1.1670516784e-03
134        -4.2710764252e-14
135        -1.3781746941e-14
136         2.0313279559e-16
137         3.2443420216e-06
138         1.2067086734e-03
139         4.3714128248e-14
140         1.5045450151e-14
141         1.5884153590e-13
142         1.1654868288e-11
 Sym= A
 Ene=         3.1370723767e-02
 Spin= Alpha
 Occup=         0.0000000000e+00
  1         6.5933918777e-06
  2         3.1698190159e-05
  3         1.4046202996e-04
  4         5.6028849097e-04
  5         2.0145616235e-03
  6         6.2603972990e-03
  7         1.6328633986e-02
  8         3.3185072164e-02
  9         4.7772859256e-02
 10         1.0544727302e-02
 11        -1.2585313510e-01
 12        -2.4226994649e-01
 13        -2.2553291606e-01
 14         2.6439542859e-02
 15        -3.3992696576e-16
 16         2.4434462653e-16
 17        -3.2409137852e-04
 18         1.4413047954e-15
 19        -1.0071740964e-15
 20        -2.6135409725e-03
 21         3.7743447156e-15
 22        -5.9711689798e-16
 23        -1.2398347959e-02
 24         8.4672008340e-15
 25        -9.7693298874e-15
 26        -4.1231965867e-02
 27         4.5682704049e-14
 28         1.6988385175e-14
 29        -9.2182856788e-02
 30        -9.2124176358e-16
 31        -9.1381842892e-14
 32        -1.3961891802e-01
 33        -1.6073517455e-13
 34        -2.1075745733e-13
 35        -1.3225217984e-01
 36        -6.1489971673e-13
 37         4.5714135160e-14
 38        -5.6775744300e-02
 39         2.0788281693e-13
 40         1.5247258457e-13
 41        -3.7782407227e-02
 42         1.1034853754e-03
 43        -9.1992975451e-16
 44         1.5549094685e-15
 45        -1.2158371012e-11
 46         4.2943814851e-14
 47         4.0380143583e-03
 48         4.5344331227e-15
 49         3.0501191367e-14
 50        -1.9935544489e-10
 51         1.0268779620e-12
 52         1.0534043425e-02
 53        -2.2898582869e-13
 54        -2.2496004161e-13
 55         4.5149663342e-10
 56        -2.8865319936e-12
 57         2.4352497965e-02
 58        -1.3932446768e-13
 59         2.5685400400e-14
 60        -3.2391955453e-09
 61         1.6396165201e-11
 62         2.1778094883e-04
 63         1.7670390534e-15
 64         5.8645507154e-15
 65        -6.9410401199e-11
 66         3.5860158253e-13
 67         7.1899427428e-17
 68        -1.3220990860e-15
 69         5.1559129221e-04
 70        -3.0941812618e-14
 71        -5.8040931921e-14
 72         1.3690692120e-11
 73         1.2160603270e-13
 74        -6.2589893489e-16
 75        -4.2463294474e-15
 76         6.2425399366e-04
 77        -1.1651686733e-13
 78        -5.2179678001e-14
 79         1.5503995996e-10
 80        -8.5679758393e-13
 81         1.4530554210e-15
 82        -1.4521321179e-14
 83         2.5955794137e-04
 84        -7.8532939957e-15
 85        -2.1389445943e-14
 86        -2.4595710004e-11
 87         1.6697817393e-13
 88        -4.9136260041e-16
 89        -1.1417762873e-15
 90         1.5765467064e-12
 91         2.0171669415e-13
 92        -7.4897138771e-04
 93        -3.8820838271e-14
 94        -1.1795905532e-14
 95        -3.1428416753e-11
 96        -9.3737776972e-15
 97         1.6204383205e-15
 98         5.7899174697e-15
 99        -2.2238921254e-11
100        -4.8780826699e-14
101         2.2382661432e-04
102         1.6275002737e-03
103         9.2009278657e-03
104         3.0418914873e-02
105         1.0815049918e-01
106         2.0417300373e-01
107         5.3524981222e-01
108         4.4579459769e-01
109        -4.3593209213e-15
110        -4.9491074241e-15
111         6.7866997901e-03
112         5.4628762799e-14
113         1.4075070074e-13
114         1.8223446028e-02
115         4.9126865708e-13
116         2.0541564988e-13
117         5.5312348122e-02
118         3.7713533339e-14
119        -1.5304276319e-13
120         5.0969517602e-02
121        -1.6648728769e-03
122         3.6193919879e-15
123        -1.0781019714e-14
124         9.4308708091e-12
125        -1.3936476728e-13
126        -1.5136314620e-03
127        -9.4571048948e-14
128        -8.6617121000e-14
129        -7.5007674167e-11
130         5.9659097340e-13
131        -8.3075828376e-03
132        -1.7396155908e-13
133        -9.8348282991e-14
134         1.6622284694e-10
135        -5.6830231705e-13
136         1.9464376561e-04
137         2.8491197992e-14
138         5.7410610998e-14
139         1.5444313389e-12
140         1.0952889361e-13
141        -7.8002928239e-16
142        -1.7310761366e-15
 Sym= A
 Ene=         1.0211341619e-01
 Spin= Alpha
 Occup=         0.0000000000e+00
  1         2.7137769106e-07
  2         1.0731559731e-06
  3         6.6796922529e-06
  4         1.5432033093e-05
  5         1.0815439384e-04
  6         1.2649682975e-04
  7         1.0639136089e-03
  8        -1.0879278688e-04
  9         6.0213697487e-03
 10        -1.1572644126e-02
 11         3.4438973617e-02
 12         3.1364961232e-02
 13        -1.9271523904e+00
 14        -5.9966209446e+00
 15        -4.2455859846e-16
 16        -1.1887570435e-15
 17         1.4267768298e-04
 18        -1.7678485389e-15
 19         2.5955857303e-15
 20         1.1907581849e-03
 21        -6.7114062752e-16
 22        -4.6420838606e-15
 23         5.4320569181e-03
 24        -1.1529723726e-14
 25         3.4545865128e-15
 26         1.8799453333e-02
 27        -1.4391365616e-14
 28        -6.1886932297e-15
 29         3.8848938305e-02
 30        -3.0341901063e-14
 31        -6.6635457246e-15
 32         1.1765050817e-01
 33        -1.0012892123e-13
 34         2.8799908310e-14
 35        -4.4693830816e-01
 36        -1.8664273540e-13
 37        -5.1260937718e-14
 38        -1.0320460627e+00
 39         3.6575241578e-13
 40         1.6890555787e-14
 41        -2.2980331604e+00
 42        -5.6465012569e-04
 43        -2.3274426249e-16
 44         2.3810013011e-17
 45        -9.8916236462e-13
 46         5.6633492182e-15
 47         1.0861052502e-02
 48         2.8430603567e-15
 49         3.0711900884e-16
 50         1.2177614763e-11
 51        -5.8771700670e-14
 52        -1.5383349163e-01
 53        -4.9063809023e-14
 54         1.2595320716e-14
 55        -2.5174821490e-11
 56         1.4049848680e-13
 57        -2.6964235090e-01
 58        -8.6468169522e-14
 59         5.4790035763e-15
 60         2.0405649353e-10
 61        -9.9297566405e-13