[Molden Format]
[Atoms] (AU)
O    1    8           0.0000000000         0.0000000000        -0.1086136939
H    2    1           0.0000000000         0.0000000000         1.7237781409
[GTO]
  1 0
 s    1  1.00
   105374.9500000000         1.0000000000
 s    1  1.00
    15679.2400000000         1.0000000000
 s    1  1.00
     3534.5447000000         1.0000000000
 s    1  1.00
      987.3651600000         1.0000000000
 s    1  1.00
      315.9787500000         1.0000000000
 s    1  1.00
      111.6542800000         1.0000000000
 s    1  1.00
       42.6994510000         1.0000000000
 s    1  1.00
       17.3955960000         1.0000000000
 s    1  1.00
        7.4383090000         1.0000000000
 s    1  1.00
        3.2228620000         1.0000000000
 s    1  1.00
        1.2538770000         1.0000000000
 s    1  1.00
        0.4951550000         1.0000000000
 s    1  1.00
        0.1916650000         1.0000000000
 s    1  1.00
        0.0670830000         1.0000000000
 p    1  1.00
      200.0000000000         1.0000000000
 p    1  1.00
       46.5333670000         1.0000000000
 p    1  1.00
       14.6218090000         1.0000000000
 p    1  1.00
        5.3130640000         1.0000000000
 p    1  1.00
        2.1025250000         1.0000000000
 p    1  1.00
        0.8502230000         1.0000000000
 p    1  1.00
        0.3375970000         1.0000000000
 p    1  1.00
        0.1288920000         1.0000000000
 p    1  1.00
        0.0451120000         1.0000000000
 d    1  1.00
        3.7500000000         1.0000000000
 d    1  1.00
        1.3125000000         1.0000000000
 d    1  1.00
        0.4593750000         1.0000000000
 d    1  1.00
        0.1607810000         1.0000000000
 f    1  1.00
        2.3500000000         1.0000000000
 f    1  1.00
        0.9400000000         1.0000000000
 f    1  1.00
        0.3760000000         1.0000000000
 g    1  1.00
        1.1750000000         1.0000000000
 g    1  1.00
        0.4700000000         1.0000000000

  2 0
 s    1  1.00
      188.6144500000         1.0000000000
 s    1  1.00
       28.2765960000         1.0000000000
 s    1  1.00
        6.4248300000         1.0000000000
 s    1  1.00
        1.8150410000         1.0000000000
 s    1  1.00
        0.5910630000         1.0000000000
 s    1  1.00
        0.2121490000         1.0000000000
 s    1  1.00
        0.0798910000         1.0000000000
 s    1  1.00
        0.0279620000         1.0000000000
 p    1  1.00
        2.3050000000         1.0000000000
 p    1  1.00
        0.8067500000         1.0000000000
 p    1  1.00
        0.2823620000         1.0000000000
 p    1  1.00
        0.0988270000         1.0000000000
 d    1  1.00
        1.8190000000         1.0000000000
 d    1  1.00
        0.7276000000         1.0000000000
 d    1  1.00
        0.2910400000         1.0000000000
 f    1  1.00
        0.9701090000         1.0000000000

[5D7F]
[9G]

[MO]
 Sym= A
 Ene=        -2.0633717348e+01
 Spin= Alpha
 Occup=         1.0000000000e+00
  1         1.0088901635e-04
  2         4.8519105571e-04
  3         2.1433160614e-03
  4         8.5308223812e-03
  5         3.0177338335e-02
  6         9.0996771440e-02
  7         2.1775440477e-01
  8         3.6857240272e-01
  9         3.3636513654e-01
 10         9.6955995043e-02
 11         2.0993480667e-03
 12         2.1101703389e-03
 13         2.0976351765e-03
 14         3.6024699109e-04
 15        -6.0574918201e-17
 16         2.0588313124e-17
 17         6.9032569526e-06
 18         8.9413573545e-16
 19         1.5784868308e-16
 20         5.3541492658e-05
 21        -1.5326861440e-15
 22         2.2539148245e-16
 23         4.4830001663e-04
 24         3.1695814248e-15
 25         1.6287395237e-15
 26         7.7124620420e-04
 27        -2.2824837796e-15
 28        -2.7242183608e-15
 29         5.3834241885e-05
 30         3.2800738758e-15
 31         8.7163482854e-15
 32        -1.8932790104e-04
 33        -7.7370015815e-15
 34         2.5691050505e-14
 35         1.4029220569e-03
 36        -1.0258683885e-14
 37         4.2553507114e-15
 38         4.5743532536e-04
 39         3.9485870422e-16
 40        -2.5156778538e-15
 41         1.9852829807e-05
 42         3.1014462594e-05
 43        -2.7779254519e-16
 44        -1.1711282149e-15
 45        -7.5835581508e-05
 46        -2.4668646446e-07
 47        -6.0855796988e-05
 48         2.5883366562e-15
 49         4.2682632291e-15
 50         3.2518629523e-04
 51         1.0578023642e-06
 52         4.6948107167e-04
 53        -4.4430869725e-15
 54         2.3919206795e-14
 55        -1.9299414877e-05
 56        -6.2779298289e-08
 57         1.6773554105e-04
 58        -7.2117057457e-15
 59         4.5262312822e-15
 60         2.5815785395e-05
 61         8.3976473576e-08
 62         1.6746795667e-05
 63         3.8285846021e-16
 64         3.6044240726e-16
 65         6.2045696052e-07
 66         2.0182919182e-09
 67        -8.4898815469e-16
 68        -6.9619006587e-16
 69         7.7359604604e-05
 70         6.8518758416e-16
 71         9.6552848319e-15
 72         1.2789613681e-05
 73         4.1603486236e-08
 74         4.8367022953e-16
 75        -1.2090647338e-15
 76         1.1256954733e-04
 77        -3.6056409326e-15
 78         8.8618565479e-15
 79        -5.7304625747e-06
 80        -1.8640692975e-08
 81        -5.9317323007e-16
 82         1.0248601734e-15
 83         2.5318588629e-05
 84         4.8013370331e-16
 85         2.6836792400e-15
 86         7.1125191276e-06
 87         2.3136397527e-08
 88        -1.9804738592e-16
 89         2.0572582330e-16
 90        -6.7979646235e-08
 91        -4.4226823618e-10
 92         2.0738861113e-05
 93        -1.1515769482e-15
 94         3.2281220681e-15
 95        -3.4091617469e-06
 96        -1.1089705106e-08
 97        -4.9938690237e-16
 98         3.8475042060e-16
 99        -9.5573642464e-09
100        -6.2179517062e-11
101         3.3237693386e-07
102         5.5583845619e-06
103         2.8039551616e-06
104         7.7600541086e-05
105        -5.7761274576e-04
106        -2.2100629263e-03
107        -3.5536991645e-04
108        -3.1264690930e-05
109         3.6169462634e-16
110         2.4493855463e-15
111        -1.6287877469e-05
112         5.1341216816e-18
113        -2.2809953988e-14
114         3.0626401386e-05
115         1.3283852545e-14
116        -2.4600463514e-14
117         9.6029808461e-04
118         5.4991049826e-15
119         1.2736623318e-15
120         1.6251303776e-04
121         3.0596758008e-05
122        -3.5286876472e-16
123         1.3598865510e-15
124        -1.0192233913e-06
125        -3.3154424686e-09
126         1.0601919018e-04
127         1.5207731209e-15
128         1.7811180654e-14
129        -1.0857569154e-06
130        -3.5318702539e-09
131        -2.0192269059e-04
132        -6.1010943561e-15
133         6.2230836641e-15
134         9.4084064625e-06
135         3.0604720386e-08
136        -7.2742752723e-05
137        -5.8512031903e-16
138        -1.0686162560e-14
139         7.6376191925e-06
140         2.4844500681e-08
141         6.8297852022e-16
142        -9.8183174204e-16
 Sym= A
 Ene=        -1.3094105342e+00
 Spin= Alpha
 Occup=         1.0000000000e+00
  1         2.1409614944e-05
  2         1.0288928697e-04
  3         4.5618104947e-04
  4         1.8174334066e-03
  5         6.5376159596e-03
  6         2.0242126245e-02
  7         5.2643997613e-02
  8         1.0526638896e-01
  9         1.4785739544e-01
 10         3.2624664810e-02
 11        -3.2400994302e-01
 12        -4.9711492775e-01
 13        -2.2112825675e-01
 14        -2.8112066673e-02
 15        -1.4761914349e-16
 16        -2.3220601410e-17
 17        -1.1188035791e-04
 18        -2.8850631057e-16
 19        -1.1628367895e-16
 20        -8.7839591792e-04
 21         1.9641272274e-15
 22         3.0389578852e-15
 23        -4.1423229148e-03
 24        -3.5231968374e-15
 25        -1.2977697455e-15
 26        -1.2572218164e-02
 27         6.9278589349e-15
 28         1.2172069766e-14
 29        -3.0342481528e-02
 30        -3.8946076535e-15
 31        -1.1993797138e-14
 32        -4.5929784535e-02
 33         6.8180530834e-14
 34        -9.9568222222e-14
 35        -3.6675186249e-02
 36         1.6867785220e-14
 37        -5.6393086203e-14
 38        -1.7324878826e-02
 39        -6.4388756169e-15
 40         5.2931129244e-15
 41        -2.8741516270e-03
 42        -1.5726475659e-03
 43         1.0214616277e-15
 44         2.7631821190e-15
 45        -6.6294346594e-04
 46        -2.1564966782e-06
 47        -6.9118883907e-03
 48        -1.5523467401e-15
 49        -1.1330389957e-14
 50         1.1898144111e-04
 51         3.8703614429e-07
 52        -9.3637859228e-03
 53         4.4850511794e-14
 54        -7.8246339314e-14
 55        -2.2646476524e-03
 56        -7.3666992625e-06
 57        -4.6846296842e-03
 58         2.1436465995e-14
 59        -4.9862639160e-14
 60        -1.7602200208e-03
 61        -5.7258406199e-06
 62        -9.6438756225e-04
 63         4.7091775428e-17
 64         1.6733669054e-15
 65         1.0949244626e-04
 66         3.5616927907e-07
 67         4.1210399711e-16
 68         3.2893369180e-15
 69        -1.8155473957e-03
 70         5.8136525284e-15
 71        -2.5301697298e-14
 72         1.5004074947e-04
 73         4.8806933758e-07
 74         7.1059906314e-16
 75         4.0149697630e-15
 76        -1.7196317637e-03
 77         2.3565457426e-14
 78        -3.6735638353e-14
 79        -1.0246108541e-04
 80        -3.3329688024e-07
 81        -8.3768407492e-16
 82        -4.0324977180e-15
 83        -5.0986256594e-04
 84         1.8301085829e-15
 85        -8.4342622333e-15
 86         4.2352736932e-05
 87         1.3776972218e-07
 88         7.3182686803e-16
 89        -7.5968214204e-16
 90         1.8431598805e-06
 91         1.1991400377e-08
 92        -7.3210025547e-05
 93         7.2416241508e-15
 94        -1.1853303046e-14
 95        -1.7000525251e-05
 96        -5.5301211039e-08
 97         3.1553461331e-16
 98         5.2299471237e-16
 99         1.5132954700e-05
100         9.8453377239e-08
101        -3.3685852849e-04
102        -2.6479406321e-03
103        -1.2481558500e-02
104        -4.7437078830e-02
105        -9.3069139466e-02
106        -1.5915219012e-02
107         2.9100584499e-02
108         8.6901129271e-04
109         2.2577149302e-15
110        -9.8058931112e-15
111         6.9231764109e-03
112        -2.4851557109e-14
113         6.4585854408e-14
114         1.5427682297e-02
115        -7.7230576160e-14
116         1.2224764509e-13
117         2.8228085693e-03
118         6.5112783213e-15
119         2.6130009809e-14
120        -9.1398661803e-03
121        -2.5113565179e-03
122        -1.4676663243e-15
123        -1.6919099433e-15
124         1.0492728465e-05
125         3.4131921017e-08
126        -2.2813288678e-03
127         2.1104864544e-14
128        -4.9856227051e-14
129         1.1918200835e-04
130         3.8768857270e-07
131        -3.5270611956e-04
132         1.9710020987e-14
133        -3.2822709202e-14
134        -1.5367990262e-04
135        -4.9990718851e-07
136         8.7474542162e-04
137        -5.5873541292e-15
138         3.2293597052e-14
139        -4.2066104030e-05
140        -1.3683732950e-07
141        -3.5651167842e-15
142        -3.0572645970e-16
 Sym= A
 Ene=        -6.6104743572e-01
 Spin= Alpha
 Occup=         1.0000000000e+00
  1         6.5113386057e-06
  2         3.1265430317e-05
  3         1.3885749622e-04
  4         5.5198064749e-04
  5         1.9929051951e-03
  6         6.1540238936e-03
  7         1.6146961756e-02
  8         3.2268074469e-02
  9         4.6881073136e-02
 10         7.6406779331e-03
 11        -1.0493366882e-01
 12        -1.9090141391e-01
 13        -1.4887469282e-01
 14        -1.4553989036e-02
 15         6.2965308574e-17
 16         2.0185958224e-16
 17         7.2944067999e-04
 18        -5.7067606963e-16
 19         1.9966237612e-16
 20         5.8307725124e-03
 21        -1.7005263108e-15
 22         2.9300642022e-15
 23         2.7677761988e-02
 24        -7.7031105460e-15
 25         1.4962249106e-15
 26         8.9478413608e-02
 27        -1.4516550230e-14
 28         1.1099354815e-14
 29         1.9942575056e-01
 30        -2.1127642637e-14
 31         1.1969301249e-14
 32         2.8746763305e-01
 33         2.8397248798e-14
 34         8.8565017693e-14
 35         2.5327826699e-01
 36         2.7082196838e-14
 37         4.6623722134e-14
 38         8.8767538247e-02
 39        -2.1727429695e-15
 40        -4.8006156333e-15
 41         2.2837757716e-03
 42         3.7743010503e-03
 43         2.9221474698e-16
 44         5.3298200729e-16
 45        -1.5923773156e-04
 46        -5.1798630824e-07
 47         1.4852390274e-02
 48        -1.0084665224e-15
 49         2.2314124760e-15
 50         2.5401233253e-04
 51         8.2627973518e-07
 52         1.7801714129e-02
 53         3.6799202882e-14
 54         6.2156585365e-14
 55        -1.6843837762e-04
 56        -5.4791519778e-07
 57         7.0449574908e-03
 58         2.3969807295e-14
 59         3.2699430819e-14
 60        -5.8804945340e-04
 61        -1.9128730498e-06
 62         1.5117918931e-03
 63        -2.2355362190e-16
 64        -2.4172478474e-16
 65        -8.3623827614e-04
 66        -2.7202094262e-06
 67         2.9742060208e-16
 68         1.5098701879e-15
 69         2.2895907672e-03
 70         5.8991516400e-15
 71         7.0716120239e-15
 72        -1.3463247008e-03
 73        -4.3794756194e-06
 74        -7.4872850299e-16
 75         3.8143889809e-15
 76         1.9699592160e-04
 77         2.1838932970e-14
 78         3.1667544233e-14
 79        -1.2055577504e-03
 80        -3.9215731292e-06
 81         1.8785027424e-15
 82        -1.8855013619e-15
 83         7.2127865104e-04
 84         1.4183199350e-15
 85         2.5177164585e-15
 86        -1.9124508604e-04
 87        -6.2210341282e-07
 88        -5.9030293456e-16
 89         3.2462949457e-16
 90        -1.2505766791e-06
 91        -8.1361175494e-09
 92        -5.4351943663e-04
 93         7.7229230376e-15
 94         1.0047692056e-14
 95        -9.7948568694e-05
 96        -3.1861806056e-07
 97        -6.8249147729e-16
 98        -2.7109264602e-15
 99         5.1183716724e-06
100         3.3299576252e-08
101         4.9948867262e-04
102         3.9125226667e-03
103         1.9023812618e-02
104         7.3488375176e-02
105         1.7683713123e-01
106         1.4129953081e-01
107         1.5178031984e-02
108         9.6301326412e-04
109         2.1199499190e-15
110         9.0205357646e-15
111        -5.7614270434e-03
112        -2.3504702060e-14
113        -4.3746284661e-14
114        -1.7955205772e-02
115        -6.1149247602e-14
116        -8.9420066753e-14
117        -7.8538990893e-04
118        -1.2241507910e-14
119        -2.2907877225e-14
120         4.5304936705e-03
121         2.3854826868e-03
122        -3.0769597530e-16
123        -1.1660458363e-15
124        -7.6494186807e-05
125        -2.4882884925e-07
126         2.7749983563e-03
127         1.8433193014e-14
128         3.0632714415e-14
129        -3.3942578667e-04
130        -1.1041221764e-06
131        -2.2873788199e-03
132         1.6287895737e-14
133         2.9059454773e-14
134        -4.7789542719e-04
135        -1.5545517231e-06
136        -8.5570893415e-04
137        -3.8914074688e-15
138        -2.9045144910e-15
139         1.6178524345e-04
140         5.2627314226e-07
141         1.2759940401e-15
142         3.3154578148e-16
 Sym= A
 Ene=        -5.3770550552e-01
 Spin= Alpha
 Occup=         1.0000000000e+00
  1        -1.2617977671e-16
  2         4.5718891902e-16
  3        -3.3050369906e-16
  4         6.6047785819e-16
  5        -2.2246656038e-15
  6         3.9196062341e-15
  7        -7.1097640723e-15
  8         1.2230181861e-14
  9        -1.0946100966e-14
 10        -5.4051937093e-15
 11         1.3277211531e-13
 12        -8.0551410491e-13
 13        -4.5339222241e-12
 14        -2.4005615026e-12
 15         8.7732530893e-04
 16         1.4269271873e-06
 17         1.0232510953e-16
 18         7.0547872590e-03
 19         1.1474270303e-05
 20         1.1083821931e-17
 21         3.3371873936e-02
 22         5.4277739075e-05
 23         1.3067250629e-15
 24         1.0940507373e-01
 25         1.7794206153e-04
 26         3.6231343866e-15
 27         2.4170559282e-01
 28         3.9312245772e-04
 29         9.8452779871e-15
 30         3.5140540070e-01
 31         5.7154389008e-04
 32        -4.9376342988e-14
 33         3.4072405148e-01
 34         5.5417119119e-04
 35        -1.4727823633e-12
 36         1.5716899549e-01
 37         2.5562776988e-04
 38        -1.6706999018e-12
 39         8.0667779326e-03
 40         1.3120224177e-05
 41        -2.3373225351e-13
 42         2.5716322779e-15
 43         1.6103638097e-03
 44         2.6191788603e-06
 45        -5.8196124808e-17
 46         2.6468688374e-17
 47        -3.0857960584e-14
 48         7.3434634175e-03
 49         1.1943788104e-05
 50        -8.5922154812e-17
 51         1.9092469045e-15
 52        -2.3611547722e-13
 53         1.3234957980e-02
 54         2.1526018523e-05
 55        -6.1056851823e-15
 56        -9.5742085421e-16
 57        -3.9368586497e-13
 58         6.8757559586e-03
 59         1.1183084094e-05
 60         2.2612424769e-15
 61         9.1361839690e-16
 62         3.7613888009e-16
 63         9.0805719732e-04
 64         1.4769111241e-06
 65         5.0060361408e-16
 66         1.0429606393e-16
 67        -1.2668480207e-03
 68        -6.1814447266e-06
 69        -3.4700718500e-14
 70         2.3550774349e-03
 71         3.8304194558e-06
 72        -8.7621605284e-16
 73         1.0440194813e-16
 74        -1.9448886374e-03
 75        -9.4898688847e-06
 76         2.7789348685e-14
 77         2.5701809576e-03
 78         4.1802747502e-06
 79        -5.6867746325e-15
 80        -2.3446850673e-15
 81        -2.2822487825e-03
 82        -1.1135980373e-05
 83        -9.1090793766e-15
 84         6.0897318562e-04
 85         9.9046539753e-07
 86         2.3281708388e-16
 87         1.1142099671e-15
 88        -1.0658832007e-04
 89        -5.2008591269e-07
 90         4.6875134281e-16
 91         7.6503078168e-16
 92         2.6237308201e-14
 93         3.9969196143e-04
 94         6.5007958744e-07
 95        -3.5894974515e-15
 96        -8.5012383807e-16
 97        -1.2641521907e-04
 98        -6.1682907215e-07
 99         9.9350212939e-16
100        -2.2723392400e-15
101        -5.3330031196e-16
102         1.4983445355e-15
103         1.2993157731e-15
104        -2.9830374524e-14
105         2.1195082265e-13
106         4.8207673338e-12
107         2.5816488730e-12
108         1.9405438095e-13
109         4.3453470702e-03
110         7.0674968346e-06
111         7.7774033773e-15
112         1.2545903543e-02
113         2.0405305682e-05
114        -1.6546435342e-13
115         2.0318670513e-02
116         3.3047336089e-05
117        -1.9209056450e-12
118         6.1803027430e-03
119         1.0051963840e-05
120        -8.6081463593e-13
121         1.4569142292e-15
122        -2.0546939601e-03
123        -3.3418603592e-06
124        -4.0491804425e-16
125        -1.8069815751e-15
126         1.1412001617e-13
127        -2.8111385698e-03
128        -4.5721811976e-06
129         6.6914335093e-16
130         2.7500124673e-15
131         3.7767623821e-13
132        -2.8634665462e-03
133        -4.6572902954e-06
134         1.6676410488e-14
135        -2.9963164910e-15
136        -2.4755968346e-14
137         9.9631589040e-04
138         1.6204597074e-06
139        -7.3617284165e-16
140        -3.2926993619e-16
141        -4.1694855979e-05
142        -2.0344543552e-07
 Sym= A
 Ene=        -2.4591424815e-01
 Spin= Alpha
 Occup=         1.0000000000e+00
  1         1.5905978056e-16
  2        -1.6493350969e-16
  3        -4.9038232453e-18
  4         1.6949019549e-16
  5        -9.7705065713e-16
  6         1.8080319113e-15
  7         2.9010927408e-16
  8        -1.8248700690e-16
  9         1.2148542548e-14
 10        -2.0245805895e-14
 11         3.9442635047e-14
 12        -3.6535569957e-13
 13        -1.1299701687e-12
 14        -2.5089837792e-13
 15        -1.4750942966e-06
 16         9.0694015187e-04
 17        -1.8835449041e-16
 18        -1.1863062876e-05
 19         7.2938306849e-03
 20        -2.1432950827e-16
 21        -5.5983405013e-05
 22         3.4420577691e-02
 23        -2.2799048152e-15
 24        -1.8359364099e-04
 25         1.1287986469e-01
 26        -5.9238017345e-15
 27        -4.1041547516e-04
 28         2.5233795166e-01
 29        -2.1227037675e-14
 30        -6.0367419304e-04
 31         3.7116024749e-01
 32         2.2329290078e-14
 33        -5.5315436915e-04
 34         3.4009887231e-01
 35        -2.4704131799e-13
 36        -1.9966739302e-04
 37         1.2276257579e-01
 38        -3.2844808145e-13
 39        -3.3682489699e-06
 40         2.0709185989e-03
 41         1.9942121794e-14
 42        -2.2747889748e-15
 43        -2.7032175449e-06
 44         1.6620337680e-03
 45        -8.6805618364e-17
 46         6.8709786524e-17
 47         1.3555097624e-14
 48        -1.2588953160e-05
 49         7.7401337012e-03
 50        -3.1917399932e-15
 51        -2.0560290924e-15
 52         1.1851985680e-13
 53        -2.3484415828e-05
 54         1.4439049275e-02
 55        -6.5073577521e-15
 56         4.4324019577e-17
 57        -4.5767329993e-14
 58        -1.1058132254e-05
 59         6.7989306641e-03
 60         1.3272006116e-15
 61        -2.2570881791e-15
 62        -4.0681619419e-16
 63         1.5330171367e-06
 64        -9.4255315909e-04
 65        -6.7815187061e-16
 66        -2.8510251526e-16
 67         1.3940133822e-05
 68        -2.8569423045e-03
 69         2.4617759700e-14
 70         4.9335956802e-07
 71        -3.0333496665e-04
 72        -2.8509381431e-15
 73         4.9867698110e-16
 74         2.0763160354e-05
 75        -4.2552784606e-03
 76         9.4614301078e-14
 77        -8.0102760821e-07
 78         4.9249997429e-04
 79        -6.0104265257e-15
 80         1.9458368811e-15
 81         1.9957047351e-05
 82        -4.0900706964e-03
 83         5.7921340270e-15
 84        -7.2672808834e-07
 85         4.4681811499e-04
 86        -4.7002342233e-15
 87        -1.2756374907e-16
 88         1.1427469503e-06
 89        -2.3419876347e-04
 90        -3.6582812567e-16
 91        -8.3350210209e-16
 92         3.4129431422e-14
 93        -6.5470904225e-07
 94         4.0253825131e-04
 95        -1.8756452682e-15
 96         3.0562472640e-15
 97         1.0669451627e-06
 98        -2.1866366632e-04
 99        -2.7684335821e-16
100         6.3834753638e-16
101        -1.5707784768e-16
102        -6.2899110363e-17
103         4.2632221407e-16
104         1.1749487624e-14
105        -4.4031043169e-13
106         1.5771331555e-12
107         2.7882887956e-13
108         1.0521722585e-14
109        -6.6161167872e-06
110         4.0678226140e-03
111        -4.3231130872e-15
112        -1.8141057867e-05
113         1.1153764228e-02
114         1.2810229568e-13
115        -2.3319359348e-05
116         1.4337567513e-02
117        -8.1279509147e-13
118        -2.2907346358e-06
119         1.4084248238e-03
120        -1.5458806665e-13
121        -1.2025743459e-14
122         3.2625299449e-06
123        -2.0059188152e-03
124         3.0968591885e-15
125         4.4289503999e-15
126        -6.7744110773e-15
127         4.1655658080e-06
128        -2.5611373381e-03
129        -7.0155548703e-15
130        -6.0766727515e-15
131         2.7965085843e-13
132         2.8161115676e-06
133        -1.7314452108e-03
134         3.1878305012e-14
135        -1.2037033115e-14
136         4.5078017568e-14
137        -1.5634799082e-06
138         9.6128280071e-04
139        -1.9827087599e-14
140        -2.6610037509e-16
141         2.7776966865e-07
142        -5.6927138197e-05
 Sym= A
 Ene=         3.1370723767e-02
 Spin= Alpha
 Occup=         0.0000000000e+00
  1         2.0972775768e-06
  2         9.7773136864e-06
  3         4.5864207886e-05
  4         1.6812886351e-04
  5         6.7385775085e-04
  6         1.8167810533e-03
  7         5.6899652299e-03
  8         8.6004484338e-03
  9         1.9791292907e-02
 10        -9.4883857241e-03
 11         2.0214262472e-02
 12        -3.0977643841e-01
 13        -2.2224008088e+00
 14        -4.0414104909e+00
 15        -3.4003947184e-16
 16        -7.3375424734e-16
 17        -8.0989156894e-05
 18        -1.2094266248e-15
 19         1.1418576609e-15
 20        -6.1925996468e-04
 21         1.3628908778e-15
 22        -1.4629650708e-15
 23        -3.0820674634e-03
 24        -3.4643757435e-15
 25         4.3160148380e-16
 26        -9.6154714895e-03
 27        -1.1540862851e-15
 28         1.9106052289e-15
 29        -2.0388667833e-02
 30         1.7259922112e-15
 31        -1.2112736181e-14
 32        -4.7966389124e-02
 33        -4.5620066304e-14
 34        -1.6790491026e-14
 35        -6.0663956333e-01
 36        -7.4945135301e-14
 37        -7.4795180545e-14
 38        -1.3043073959e+00
 39        -1.2463569416e-14
 40         8.6456962927e-14
 41        -5.9331495845e-01
 42         9.4205271140e-04
 43        -3.1740472140e-16
 44        -2.2999464798e-16
 45         4.2489167000e-05
 46         1.3821351661e-07
 47        -9.0427926738e-03
 48         2.7924700201e-15
 49        -5.6299712185e-16
 50         4.3441605254e-05
 51         1.4131171508e-07
 52        -1.0018660811e-01
 53        -1.5348577782e-14
 54        -3.1609589240e-14
 55         1.3650067741e-03
 56         4.4402467564e-06
 57        -2.6695293962e-01
 58        -5.1397723189e-14
 59        -2.4747472987e-14
 60        -4.4885515237e-03
 61        -1.4600862589e-05
 62        -7.6602183792e-05
 63        -3.3242058914e-16
 64         1.4806151567e-16
 65         7.4069723669e-05
 66         2.4094228520e-07
 67         3.0189820242e-17
 68         4.8239520454e-16
 69        -1.0710853183e-02
 70         3.4576905486e-15
 71        -5.5392382923e-15
 72         2.7059120965e-04
 73         8.8020935963e-07
 74        -5.9544287067e-16
 75         5.1403497124e-16
 76        -3.7893971281e-03
 77        -1.5018079198e-14
 78        -1.5179088576e-14
 79        -1.1655376271e-04
 80        -3.7913911780e-07
 81         1.3382096069e-15
 82        -6.6950716786e-16
 83        -4.2279242727e-03
 84         1.0102908434e-15
 85        -2.6496176299e-15
 86         3.0565814953e-05
 87         9.9427902848e-08
 88         6.3442081321e-17
 89        -1.2936921461e-16
 90        -4.2527261361e-06
 91        -2.7667779936e-08
 92         1.0173068242e-02
 93        -2.5865554062e-15
 94        -2.5408076085e-15
 95        -6.8189424192e-05
 96        -2.2181418931e-07
 97         5.2281272514e-16
 98        -2.3104685613e-16
 99         1.3263087496e-05
100         8.6288222653e-08
101         2.4605732676e-06
102         1.8927664571e-04
103        -2.0673472515e-04
104        -2.0508477131e-03
105         4.5340198611e-02
106         2.3707044803e+00
107         3.1688408673e+00
108         1.9271557278e+00
109         2.7617327435e-15
110        -2.1738165350e-15
111         5.6092586943e-03
112        -4.0114874623e-15
113         1.4269464907e-14
114        -5.7429118996e-02
115         6.5437673904e-14
116         6.4348932966e-14
117        -7.2175507925e-01
118         6.8536434945e-14
119        -2.1048692287e-14
120        -9.3017251048e-01
121         1.4866410553e-03
122         9.1385857707e-16
123        -6.6174807153e-16
124        -3.5277642753e-05
125        -1.1475506359e-07
126         3.0487624656e-02
127        -5.9634714825e-16
128        -1.4589344673e-14
129         9.2881124266e-05
130         3.0213411380e-07
131         1.5389036292e-01
132        -3.2050888293e-14
133        -1.4733064594e-14
134        -3.7491438843e-04
135        -1.2195634719e-06
136        -5.6770657351e-03
137        -1.6243866039e-15
138         6.8108181003e-15
139         3.6457890167e-05
140         1.1859430275e-07
141        -4.7116410887e-16
142         8.1603752972e-17
 Sym= A
 Ene=         1.0211341619e-01
 Spin= Alpha
 Occup=         0.0000000000e+00
  1         5.6398688570e-07
  2         2.5443077731e-06
  3         1.2662870460e-05
  4         4.2426643420e-05
  5         1.9057038303e-04
  6         4.4103222940e-04
  7         1.6844585555e-03
  8         1.7588891272e-03
  9         7.2231891397e-03
 10        -8.9250155516e-03
 11         1.3826267341e-02
 12         1.6899180703e-01
 13        -1.4141439016e+00
 14        -5.6163032762e+00
 15        -6.4745378384e-16
 16        -1.1449566243e-15
 17         1.1787869222e-04
 18        -1.0223350591e-15
 19         3.1252952272e-15
 20         1.0011450843e-03
 21        -7.4659003508e-16
 22        -4.2910376219e-15
 23         4.4603814732e-03
 24        -9.4736727773e-15
 25         1.1019047955e-15
 26         1.5811276645e-02
 27        -8.6980314437e-15
 28        -1.2408354939e-15
 29         2.9274229850e-02
 30        -2.9863793860e-14
 31        -2.2875359811e-14
 32         1.3502360512e-01
 33        -6.6769574594e-14
 34         5.8808124107e-14
 35        -3.3549225632e-01
 36        -3.2135405453e-13
 37        -1.1815921269e-13
 38        -6.6181941739e-01
 39         4.0948416204e-13
 40         3.1900198423e-13
 41        -2.4482147521e+00
 42        -9.0766907067e-04
 43        -6.8665527711e-16
 44        -2.1157929217e-16
 45        -4.7795317188e-06
 46        -1.5547395389e-08
 47         2.0326324909e-02
 48         4.4323572179e-15
 49         5.9679633887e-16
 50         4.9682107160e-05
 51         1.6161151657e-07
 52        -1.5134833414e-01
 53        -5.1514707396e-14
 54         9.5721569343e-15
 55        -2.0814952004e-05
 56        -6.7709202958e-08
 57        -2.1280754365e-01
 58        -9.8464648996e-14
 59         2.8543081180e-14
 60        -1.9688124286e-03
 61        -6.4043733430e-06